LAMMPS data file via write_data, version 11 Nov 2013-ICMS, timestep = 100

512 atoms
1 atom types
820 bonds
1 bond types
1931 angles
1 angle types

-1.0232647704563264e-03 2.1725023264770460e+01 xlo xhi
-9.7422776498777043e-04 2.1724974227764989e+01 ylo yhi
-9.9041370350833415e-04 2.1724990413703509e+01 zlo zhi
0.0000000000000000e+00 0.0000000000000000e+00 0.0000000000000000e+00 xy xz yz

Masses

1 1e-20

Bond Coeffs # harmonic

1 5.15667 2.35169

Angle Coeffs # harmonic

1 1.171 109.5

Atoms # molecular

1 1 1 -9.5891483909926452e-04 -8.3125988209506864e-04 -8.0089660947474958e-04 0 0 0
2 1 1 -9.7521851493080798e-04 2.7148235690526432e+00 2.7146387130345135e+00 0 0 0
3 1 1 2.7147630797893365e+00 2.7145917158059234e+00 -9.0267152576755142e-04 0 0 0
4 1 1 2.7142036246884453e+00 -5.5198410544900559e-04 2.7149806886127901e+00 0 0 0
5 1 1 4.0730520417681317e+00 1.3566237202796751e+00 4.0722355541670971e+00 0 0 0
6 1 1 1.3567586057602814e+00 1.3570682808884680e+00 1.3568567991320575e+00 0 0 0
7 1 1 1.3565566645761409e+00 4.0723838110629531e+00 4.0727566330067653e+00 0 0 0
8 1 1 4.0721328099451108e+00 4.0727396112892427e+00 1.3567638431270346e+00 0 0 0
9 1 1 -9.8007496005643306e-04 2.1724920341366502e+01 5.4304460659604841e+00 0 -1 0
10 1 1 -8.6882287564913631e-04 2.7147430948992866e+00 8.1464565214985782e+00 0 0 0
11 1 1 2.7141471058742002e+00 2.7149647439269997e+00 5.4309394053687381e+00 0 0 0
12 1 1 2.7148551321820800e+00 -6.6757212945423657e-04 8.1460018183582559e+00 0 0 0
13 1 1 4.0725133897826895e+00 1.3568484797955525e+00 9.5041325136030999e+00 0 0 0
14 1 1 1.3565738433048129e+00 1.3568097258471730e+00 6.7884792320196077e+00 0 0 0
15 1 1 1.3569305227629909e+00 4.0725510078556555e+00 9.5041658575563588e+00 0 0 0
16 1 1 4.0721459489186440e+00 4.0724094102319670e+00 6.7887286467089583e+00 0 0 0
17 1 1 2.1724630853275482e+01 -6.5463396941043133e-04 1.0862091087254576e+01 -1 0 0
18 1 1 2.1724885136045433e+01 2.7152038284174718e+00 1.3578202113030292e+01 -1 0 0
19 1 1 2.7150627689160660e+00 2.7150501101141398e+00 1.0861753343473909e+01 0 0 0
20 1 1 2.7149627503253737e+00 -6.2432034546601651e-04 1.3578069155160623e+01 0 0 0
21 1 1 4.0728108622901757e+00 1.3570925708525248e+00 1.4935765797580720e+01 0 0 0
22 1 1 1.3581425397578435e+00 1.3564373735288071e+00 1.2218701305200240e+01 0 0 0
23 1 1 1.3571147858064709e+00 4.0725743633889238e+00 1.4935797577132361e+01 0 0 0
24 1 1 4.0724872542225068e+00 4.0726083784446061e+00 1.2220080830676354e+01 0 0 0
25 1 1 -7.5424302582611483e-04 2.1724879168025485e+01 1.6293860041247964e+01 0 -1 0
26 1 1 2.1724389853663325e+01 2.7150359276343785e+00 1.9009832024464039e+01 -1 0 0
27 1 1 2.7150324658513716e+00 2.7148547286195748e+00 1.6293462935742603e+01 0 0 0
28 1 1 2.7145758585500128e+00 -3.8642164697658197e-04 1.9009690991212526e+01 0 0 0
29 1 1 4.0727235174412213e+00 1.3571097569771258e+00 2.0367204205336918e+01 0 0 0
30 1 1 1.3573381634225685e+00 1.3568803423518374e+00 1.7650993467208075e+01 0 0 0
31 1 1 1.3572182336703418e+00 4.0721936143808168e+00 2.0367042211743517e+01 0 0 0
32 1 1 4.0727129866794201e+00 4.0724415365130131e+00 1.7651512591803073e+01 0 0 0
33 1 1 2.1724678938954309e+01 5.4300000405946314e+00 2.1724738316757456e+01 -1 0 -1
34 1 1 2.1724674726706610e+01 8.1466139568497802e+00 2.7152620468323168e+00 -1 0 0
35 1 1 2.7149420324577784e+00 8.1464467461605796e+00 -8.6926183120637605e-04 0 0 0
36 1 1 2.7147033896086326e+00 5.4307775825427642e+00 2.7145182202593956e+00 0 0 0
37 1 1 4.0722119187432178e+00 6.7885177071893521e+00 4.0724955243847187e+00 0 0 0
38 1 1 1.3571398329630879e+00 6.7885639782131149e+00 1.3566878939690736e+00 0 0 0
39 1 1 1.3567146238857362e+00 9.5041351459970702e+00 4.0728818794082278e+00 0 0 0
40 1 1 4.0732685473063635e+00 9.5035388660814384e+00 1.3569627985177632e+00 0 0 0
41 1 1 2.1724700982910129e+01 5.4303420539366618e+00 5.4300633134668015e+00 -1 0 0
42 1 1 -7.1242181645630835e-04 8.1461003658258964e+00 8.1467338839609518e+00 0 0 0
43 1 1 2.7148911845284505e+00 8.1465274381445258e+00 5.4303846681349182e+00 0 0 0
44 1 1 2.7147534708717851e+00 5.4304441755445563e+00 8.1465635676077888e+00 0 0 0
45 1 1 4.0725005482121732e+00 6.7883036236414949e+00 9.5042947734442951e+00 0 0 0
46 1 1 1.3570269222428297e+00 6.7883707696377922e+00 6.7890097679195520e+00 0 0 0
47 1 1 1.3564125058401924e+00 9.5048549541296499e+00 9.5040728886095174e+00 0 0 0
48 1 1 4.0730773992412894e+00 9.5037342335321071e+00 6.7882382826079217e+00 0 0 0
49 1 1 2.1724874006518242e+01 5.4300164262788950e+00 1.0861854220457435e+01 -1 0 0
50 1 1 2.1724987841215064e+01 8.1464862976835235e+00 1.3577876432819554e+01 -1 0 0
51 1 1 2.7148960204299759e+00 8.1459220057431452e+00 1.0862333766290696e+01 0 0 0
52 1 1 2.7146523602081793e+00 5.4303383530360172e+00 1.3577844043706550e+01 0 0 0
53 1 1 4.0728694981621985e+00 6.7879245928754210e+00 1.4935288758397839e+01 0 0 0
54 1 1 1.3570283662193492e+00 6.7886545672448113e+00 1.2220439041454846e+01 0 0 0
55 1 1 1.3565806243931198e+00 9.5043465202070507e+00 1.4935696421349640e+01 0 0 0
56 1 1 4.0722785243908346e+00 9.5038196983936096e+00 1.2220272521749676e+01 0 0 0
57 1 1 -4.2692757413324855e-04 5.4300291534875180e+00 1.6294019165636168e+01 0 0 0
58 1 1 2.1724808846065383e+01 8.1465514357306681e+00 1.9009240876366508e+01 -1 0 0
59 1 1 2.7143520114022297e+00 8.1469068593287819e+00 1.6293749553967508e+01 0 0 0
60 1 1 2.7150271474025338e+00 5.4299842054622180e+00 1.9009489759703925e+01 0 0 0
61 1 1 4.0721956411731641e+00 6.7890081274673841e+00 2.0366583922554970e+01 0 0 0
62 1 1 1.3570676431526769e+00 6.7884863845980448e+00 1.7651267830153252e+01 0 0 0
63 1 1 1.3574544753011699e+00 9.5049148668855317e+00 2.0367931221843758e+01 0 0 0
64 1 1 4.0726198926564754e+00 9.5043704628042249e+00 1.7651241573660524e+01 0 0 0
65 1 1 2.1724785734629801e+01 1.0862077907609546e+01 -7.0512991029467848e-04 -1 0 0
66 1 1 2.1724433684848766e+01 1.3577576346722614e+01 2.7145408977514900e+00 -1 0 0
67 1 1 2.7146460043329750e+00 1.3577929500597149e+01 -9.2954957897659117e-04 0 0 0
68 1 1 2.7142215176027045e+00 1.0862116592261520e+01 2.7151799686397333e+00 0 0 0
69 1 1 4.0730530211856717e+00 1.2219213059385412e+01 4.0724695112360463e+00 0 0 0
70 1 1 1.3571802560061845e+00 1.2220401366472570e+01 1.3572930698401877e+00 0 0 0
71 1 1 1.3568320596101899e+00 1.4935920866633294e+01 4.0728033637688368e+00 0 0 0
72 1 1 4.0725153907788245e+00 1.4935639110046012e+01 1.3567930815458968e+00 0 0 0
73 1 1 2.1724694306328665e+01 1.0861801943623300e+01 5.4303362584875057e+00 -1 0 0
74 1 1 2.1724390710098682e+01 1.3578158863339347e+01 8.1466901736648794e+00 -1 0 0
75 1 1 2.7148948633973005e+00 1.3578406380413471e+01 5.4304321634470183e+00 0 0 0
76 1 1 2.7146695220710160e+00 1.0862300673117543e+01 8.1465721927932631e+00 0 0 0
77 1 1 4.0729042023277389e+00 1.2220220038001530e+01 9.5042088991683222e+00 0 0 0
78 1 1 1.3577035520912564e+00 1.2218883395780638e+01 6.7869206640419097e+00 0 0 0
79 1 1 1.3571872507627289e+00 1.4935374928634067e+01 9.5039251650630661e+00 0 0 0
80 1 1 4.0727140453481718e+00 1.4935781876449811e+01 6.7884985935449151e+00 0 0 0
81 1 1 2.1724755801153250e+01 1.0862246605026767e+01 1.0862210160956746e+01 -1 0 0
82 1 1 2.1724349492101371e+01 1.3577661741147871e+01 1.3577946145451158e+01 -1 0 0
83 1 1 2.7150746843418676e+00 1.3577970793263512e+01 1.0861832529215016e+01 0 0 0
84 1 1 2.7143236672996878e+00 1.0861771341409700e+01 1.3577624880855110e+01 0 0 0
85 1 1 4.0729736270091337e+00 1.2219863257762457e+01 1.4935441916268825e+01 0 0 0
86 1 1 1.3567779432050144e+00 1.2219709275341996e+01 1.2219896622473581e+01 0 0 0
87 1 1 1.3564153707169480e+00 1.4935042140322574e+01 1.4935639437429737e+01 0 0 0
88 1 1 4.0725737633916710e+00 1.4935687673434773e+01 1.2219916984517949e+01 0 0 0
89 1 1 2.1724782759023054e+01 1.0862112042787315e+01 1.6293361903616262e+01 -1 0 0
90 1 1 2.1724941909188644e+01 1.3577530752269787e+01 1.9009479085216761e+01 -1 0 0
91 1 1 2.7140854212218146e+00 1.3577570723446886e+01 1.6293699700986334e+01 0 0 0
92 1 1 2.7144701875169566e+00 1.0861986773663762e+01 1.9008762038399126e+01 0 0 0
93 1 1 4.0721192232483370e+00 1.2219708516240688e+01 2.0367517878658848e+01 0 0 0
94 1 1 1.3563945713455261e+00 1.2219759117459459e+01 1.7651380159712193e+01 0 0 0
95 1 1 1.3566533848078450e+00 1.4935446792488275e+01 2.0367205925065221e+01 0 0 0
96 1 1 4.0719752772140350e+00 1.4934986697575958e+01 1.7651557198585763e+01 0 0 0
97 1 1 2.1725014609530934e+01 1.6293324985516957e+01 2.1724979980285301e+01 -1 0 -1
98 1 1 -7.5455818102308054e-04 1.9008849294010805e+01 2.7149966148739990e+00 0 0 0
99 1 1 2.7144774163981809e+00 1.9009214813650743e+01 2.1724816218667140e+01 0 0 -1
100 1 1 2.7147219257455912e+00 1.6293747855919705e+01 2.7140839914373465e+00 0 0 0
101 1 1 4.0727661053027600e+00 1.7651809222640992e+01 4.0728637927656761e+00 0 0 0
102 1 1 1.3566891119606299e+00 1.7651398062293804e+01 1.3565640919295874e+00 0 0 0
103 1 1 1.3567237399130314e+00 2.0367178391938616e+01 4.0725488066970783e+00 0 0 0
104 1 1 4.0727458825359513e+00 2.0366601973801352e+01 1.3564096624530475e+00 0 0 0
105 1 1 2.1724729066904420e+01 1.6293488006600548e+01 5.4303153104349269e+00 -1 0 0
106 1 1 -8.2522504542187054e-04 1.9009085191531334e+01 8.1464680166903118e+00 0 0 0
107 1 1 2.7145107287490657e+00 1.9009439825630416e+01 5.4302527291734455e+00 0 0 0
108 1 1 2.7151108570535434e+00 1.6293303570475988e+01 8.1465906040461462e+00 0 0 0
109 1 1 4.0726585120836454e+00 1.7651264309118794e+01 9.5043591851992097e+00 0 0 0
110 1 1 1.3563006128874380e+00 1.7651802750445469e+01 6.7876488510239161e+00 0 0 0
111 1 1 1.3570773647976559e+00 2.0366681926242986e+01 9.5041474405432265e+00 0 0 0
112 1 1 4.0721251616302112e+00 2.0367337250611410e+01 6.7879710642957862e+00 0 0 0
113 1 1 2.1724320243403469e+01 1.6293989496547226e+01 1.0862506401597203e+01 -1 0 0
114 1 1 -6.4733665222189106e-04 1.9009825097163603e+01 1.3577320428260967e+01 0 0 0
115 1 1 2.7147280291041485e+00 1.9008978472643872e+01 1.0861990436698678e+01 0 0 0
116 1 1 2.7144419416388885e+00 1.6293440269599611e+01 1.3577303781137527e+01 0 0 0
117 1 1 4.0731839710573494e+00 1.7651918950504491e+01 1.4936030308483767e+01 0 0 0
118 1 1 1.3567401470686347e+00 1.7651489114446068e+01 1.2219795570668250e+01 0 0 0
119 1 1 1.3566864424283893e+00 2.0366949246628096e+01 1.4936055146827137e+01 0 0 0
120 1 1 4.0724158610826171e+00 2.0366653213997573e+01 1.2219830720850174e+01 0 0 0
121 1 1 -7.0214587288421212e-04 1.6293974062827207e+01 1.6292815835563022e+01 0 0 0
122 1 1 2.1724742604904129e+01 1.9008570945673302e+01 1.9008903237854280e+01 -1 0 0
123 1 1 2.7144987148017323e+00 1.9009005159345399e+01 1.6293479079406985e+01 0 0 0
124 1 1 2.7141681512585101e+00 1.6292963150612660e+01 1.9008949448166568e+01 0 0 0
125 1 1 4.0723357977559731e+00 1.7651924410201204e+01 2.0366681506589750e+01 0 0 0
126 1 1 1.3568555608922794e+00 1.7651200033845978e+01 1.7651231165294607e+01 0 0 0
127 1 1 1.3570509207829096e+00 2.0367664391692163e+01 2.0367453610862484e+01 0 0 0
128 1 1 4.0734116102885380e+00 2.0367088459142348e+01 1.7651136148191018e+01 0 0 0
129 1 1 5.4301502747744292e+00 2.1724643384254641e+01 2.1724585681572119e+01 0 -1 -1
130 1 1 5.4307032537550866e+00 2.7150307139200200e+00 2.7150574463850354e+00 0 0 0
131 1 1 8.1464604646211338e+00 2.7147804298127074e+00 2.1724744432599046e+01 0 0 -1
132 1 1 8.1463167232884519e+00 2.1724930250029931e+01 2.7146626395855007e+00 0 -1 0
133 1 1 9.5037168369122469e+00 1.3564718823364603e+00 4.0730219463273674e+00 0 0 0
134 1 1 6.7890009193643097e+00 1.3570038116544092e+00 1.3567578348373353e+00 0 0 0
135 1 1 6.7888055745272933e+00 4.0725734481781783e+00 4.0726620197495222e+00 0 0 0
136 1 1 9.5041189543631930e+00 4.0725661288984618e+00 1.3566226056413011e+00 0 0 0
137 1 1 5.4303026650344570e+00 2.1724544223053709e+01 5.4301128329548849e+00 0 -1 0
138 1 1 5.4300479847472500e+00 2.7144528863499229e+00 8.1460746503613635e+00 0 0 0
139 1 1 8.1463707696320871e+00 2.7147959171262208e+00 5.4306062034311502e+00 0 0 0
140 1 1 8.1463392974912150e+00 -9.5660970363911841e-04 8.1465797455369806e+00 0 0 0
141 1 1 9.5045205939430204e+00 1.3567982648568000e+00 9.5038665908333542e+00 0 0 0
142 1 1 6.7889259978371426e+00 1.3572556357960353e+00 6.7888953398310710e+00 0 0 0
143 1 1 6.7889215305692270e+00 4.0719310382902982e+00 9.5035450413640046e+00 0 0 0
144 1 1 9.5042589220636629e+00 4.0725746084383792e+00 6.7881999662561796e+00 0 0 0
145 1 1 5.4304504808788767e+00 -5.1893276617251969e-04 1.0862055737952684e+01 0 0 0
146 1 1 5.4303768310048346e+00 2.7148636705295544e+00 1.3577828097331144e+01 0 0 0
147 1 1 8.1460452438672224e+00 2.7148875784289155e+00 1.0862546283878752e+01 0 0 0
148 1 1 8.1460942402280967e+00 -5.4572857654325551e-04 1.3577587027473976e+01 0 0 0
149 1 1 9.5035436668253439e+00 1.3574168979719186e+00 1.4935376976039304e+01 0 0 0
150 1 1 6.7881310951163103e+00 1.3570995407410749e+00 1.2220014012921901e+01 0 0 0
151 1 1 6.7884363804123771e+00 4.0724472256055577e+00 1.4935503775556290e+01 0 0 0
152 1 1 9.5037728162831776e+00 4.0729813795951184e+00 1.2219918436137085e+01 0 0 0
153 1 1 5.4307218771993897e+00 -6.4604639609820865e-04 1.6293433061187059e+01 0 0 0
154 1 1 5.4305580784874801e+00 2.7147339490642661e+00 1.9009302773681203e+01 0 0 0
155 1 1 8.1460917069002026e+00 2.7149279635662804e+00 1.6293625329735985e+01 0 0 0
156 1 1 8.1460705409670666e+00 -7.2174639348172366e-04 1.9009269573391904e+01 0 0 0
157 1 1 9.5041176825708451e+00 1.3569050984214077e+00 2.0366982370925005e+01 0 0 0
158 1 1 6.7883752926825514e+00 1.3570719802399722e+00 1.7651417414689053e+01 0 0 0
159 1 1 6.7883981583076745e+00 4.0724122519670418e+00 2.0367140196918708e+01 0 0 0
160 1 1 9.5045896093380549e+00 4.0723102217011116e+00 1.7651042175850755e+01 0 0 0
161 1 1 5.4309931438486974e+00 5.4298784758630649e+00 -4.6479339128502589e-04 0 0 0
162 1 1 5.4307021144360546e+00 8.1459140464830284e+00 2.7151295377998146e+00 0 0 0
163 1 1 8.1464042227968054e+00 8.1465274592309971e+00 2.1724350912408823e+01 0 0 -1
164 1 1 8.1466090205228685e+00 5.4302048184250227e+00 2.7148341299263672e+00 0 0 0
165 1 1 9.5042705148106474e+00 6.7880545543994959e+00 4.0726231476369321e+00 0 0 0
166 1 1 6.7882859904487951e+00 6.7877842666109967e+00 1.3575582251174538e+00 0 0 0
167 1 1 6.7883357442013548e+00 9.5038305074286242e+00 4.0728839006925304e+00 0 0 0
168 1 1 9.5036544279100053e+00 9.5035450183096426e+00 1.3573728031765915e+00 0 0 0
169 1 1 5.4311978708016788e+00 5.4308010022353663e+00 5.4300686784695715e+00 0 0 0
170 1 1 5.4303708817194183e+00 8.1460519199661245e+00 8.1465768331282629e+00 0 0 0
171 1 1 8.1466271133275026e+00 8.1461608834867825e+00 5.4301972495100630e+00 0 0 0
172 1 1 8.1465180135954007e+00 5.4301498273619524e+00 8.1461751837133818e+00 0 0 0
173 1 1 9.5044823636049802e+00 6.7876564198941667e+00 9.5039316587893001e+00 0 0 0
174 1 1 6.7881785448708101e+00 6.7879982405734278e+00 6.7891230052074034e+00 0 0 0
175 1 1 6.7881093142749158e+00 9.5040193593257900e+00 9.5041740065912244e+00 0 0 0
176 1 1 9.5039563934990756e+00 9.5038513746918234e+00 6.7883980416735117e+00 0 0 0
177 1 1 5.4300212720014578e+00 5.4308647755323758e+00 1.0862591052213009e+01 0 0 0
178 1 1 5.4303819988432585e+00 8.1462428591265201e+00 1.3577861272544054e+01 0 0 0
179 1 1 8.1456185791035303e+00 8.1463110154248444e+00 1.0862185424946816e+01 0 0 0
180 1 1 8.1458061208325159e+00 5.4304766895490122e+00 1.3577669869182817e+01 0 0 0
181 1 1 9.5044096717734536e+00 6.7884550383812607e+00 1.4936112971407971e+01 0 0 0
182 1 1 6.7881235190217684e+00 6.7885030744844892e+00 1.2220109343709911e+01 0 0 0
183 1 1 6.7881230277538727e+00 9.5039797795893648e+00 1.4935608256220469e+01 0 0 0
184 1 1 9.5040341858236008e+00 9.5038527536669619e+00 1.2220072571585547e+01 0 0 0
185 1 1 5.4301412274838370e+00 5.4307629509978641e+00 1.6294084586051909e+01 0 0 0
186 1 1 5.4303304681502258e+00 8.1465450715264680e+00 1.9009028941227317e+01 0 0 0
187 1 1 8.1456412167796959e+00 8.1458662345333241e+00 1.6293227871654366e+01 0 0 0
188 1 1 8.1456516486867780e+00 5.4307027324922910e+00 1.9009424322043639e+01 0 0 0
189 1 1 9.5042285097303907e+00 6.7886101507725156e+00 2.0366913186464508e+01 0 0 0
190 1 1 6.7880913765476096e+00 6.7885214669297254e+00 1.7651544660266133e+01 0 0 0
191 1 1 6.7881418029891138e+00 9.5041241207426399e+00 2.0366919841436147e+01 0 0 0
192 1 1 9.5046030004085420e+00 9.5038912599499952e+00 1.7650468301865569e+01 0 0 0
193 1 1 5.4306275744274082e+00 1.0862102754412943e+01 2.1724651642440033e+01 0 0 -1
194 1 1 5.4299838397246036e+00 1.3578184097113992e+01 2.7151284442005355e+00 0 0 0
195 1 1 8.1464813594408731e+00 1.3577285658893569e+01 -7.3780154681963727e-04 0 0 0
196 1 1 8.1457149050887203e+00 1.0861455783072714e+01 2.7146847570901684e+00 0 0 0
197 1 1 9.5045188629732138e+00 1.2220358614266281e+01 4.0733972577052402e+00 0 0 0
198 1 1 6.7884897160800000e+00 1.2219439750920779e+01 1.3566659392066815e+00 0 0 0
199 1 1 6.7889127199337063e+00 1.4935344892999296e+01 4.0723153329397377e+00 0 0 0
200 1 1 9.5041711719397259e+00 1.4935245210216365e+01 1.3567620681823129e+00 0 0 0
201 1 1 5.4307230658374381e+00 1.0861776390761969e+01 5.4306353671996703e+00 0 0 0
202 1 1 5.4304714730596393e+00 1.3577944656642853e+01 8.1462419400391664e+00 0 0 0
203 1 1 8.1463182934203289e+00 1.3577947209791848e+01 5.4307392807621691e+00 0 0 0
204 1 1 8.1459054183876578e+00 1.0861351929274081e+01 8.1460546038781629e+00 0 0 0
205 1 1 9.5038365154416233e+00 1.2220387857213675e+01 9.5041405061674862e+00 0 0 0
206 1 1 6.7880357261929971e+00 1.2220323773181171e+01 6.7881213123920574e+00 0 0 0
207 1 1 6.7881172221687747e+00 1.4935673929722354e+01 9.5042606165479384e+00 0 0 0
208 1 1 9.5039083541157652e+00 1.4935806531703509e+01 6.7885613335140116e+00 0 0 0
209 1 1 5.4307340652609239e+00 1.0862385300432454e+01 1.0861711146068165e+01 0 0 0
210 1 1 5.4303885227454822e+00 1.3577993721698133e+01 1.3577735983834577e+01 0 0 0
211 1 1 8.1460303734348134e+00 1.3577982095158015e+01 1.0861993001846027e+01 0 0 0
212 1 1 8.1462494537184611e+00 1.0861421730682535e+01 1.3577908703210907e+01 0 0 0
213 1 1 9.5035043593622124e+00 1.2220462822999336e+01 1.4934878773777555e+01 0 0 0
214 1 1 6.7880364030415690e+00 1.2220405110734120e+01 1.2219648182583725e+01 0 0 0
215 1 1 6.7881623182238577e+00 1.4935675294699656e+01 1.4935628737712369e+01 0 0 0
216 1 1 9.5042555312174493e+00 1.4935491344083777e+01 1.2219523940807353e+01 0 0 0
217 1 1 5.4304234796404609e+00 1.0861886775073462e+01 1.6293273901809183e+01 0 0 0
218 1 1 5.4302970126647736e+00 1.3577699038581059e+01 1.9009186768421070e+01 0 0 0
219 1 1 8.1460415827913497e+00 1.3577874604544022e+01 1.6293205437606169e+01 0 0 0
220 1 1 8.1457804237751841e+00 1.0862254056709766e+01 1.9009498459902577e+01 0 0 0
221 1 1 9.5039840054932991e+00 1.2219800458531678e+01 2.0366979019107774e+01 0 0 0
222 1 1 6.7886151935056311e+00 1.2219506902706915e+01 1.7650663137925864e+01 0 0 0
223 1 1 6.7880445295870144e+00 1.4935527370582721e+01 2.0366813112149750e+01 0 0 0
224 1 1 9.5038270362799793e+00 1.4935391279703188e+01 1.7651176350568683e+01 0 0 0
225 1 1 5.4308850198345526e+00 1.6293057334787793e+01 -6.3191756879983651e-04 0 0 0
226 1 1 5.4303930384832526e+00 1.9009100980529276e+01 2.7145019753409514e+00 0 0 0
227 1 1 8.1458582441323664e+00 1.9009724845934141e+01 -6.4667546789505927e-04 0 0 0
228 1 1 8.1460449909354669e+00 1.6294112744173653e+01 2.7149709227103673e+00 0 0 0
229 1 1 9.5038709057317128e+00 1.7652073697787706e+01 4.0723472045253573e+00 0 0 0
230 1 1 6.7883080514493415e+00 1.7651429165245688e+01 1.3568353772607700e+00 0 0 0
231 1 1 6.7880440508676489e+00 2.0367223493951069e+01 4.0719717912320839e+00 0 0 0
232 1 1 9.5041255921474050e+00 2.0367281237423306e+01 1.3568508292067756e+00 0 0 0
233 1 1 5.4301507603827535e+00 1.6294038225377463e+01 5.4309414759982229e+00 0 0 0
234 1 1 5.4307412962776676e+00 1.9008962730310870e+01 8.1468175949618846e+00 0 0 0
235 1 1 8.1465245298114102e+00 1.9009082286972063e+01 5.4312385200133129e+00 0 0 0
236 1 1 8.1457051572469208e+00 1.6293220795169084e+01 8.1461609697619757e+00 0 0 0
237 1 1 9.5049416216459708e+00 1.7651819075187120e+01 9.5049223231639157e+00 0 0 0
238 1 1 6.7882735284750160e+00 1.7651447213121578e+01 6.7886110280011804e+00 0 0 0
239 1 1 6.7886535867044939e+00 2.0366959189016420e+01 9.5041442656249444e+00 0 0 0
240 1 1 9.5039948354277985e+00 2.0366902585861716e+01 6.7890994894809316e+00 0 0 0
241 1 1 5.4303761964107693e+00 1.6293459942544533e+01 1.0862148413282045e+01 0 0 0
242 1 1 5.4305535696453573e+00 1.9009400585503283e+01 1.3577658688439620e+01 0 0 0
243 1 1 8.1459064615771375e+00 1.9008928270476748e+01 1.0862072686805966e+01 0 0 0
244 1 1 8.1456414285588785e+00 1.6293724878277175e+01 1.3577952020115239e+01 0 0 0
245 1 1 9.5038204720389192e+00 1.7651579371120054e+01 1.4935111887164913e+01 0 0 0
246 1 1 6.7880795779282561e+00 1.7651331987534849e+01 1.2219909196729516e+01 0 0 0
247 1 1 6.7881035607470288e+00 2.0367736855072771e+01 1.4935090394915061e+01 0 0 0
248 1 1 9.5042887562720892e+00 2.0368021531136062e+01 1.2219943845948416e+01 0 0 0
249 1 1 5.4309640796731316e+00 1.6293931886503099e+01 1.6293413709971336e+01 0 0 0
250 1 1 5.4308110349390573e+00 1.9009293296885769e+01 1.9009211422128946e+01 0 0 0
251 1 1 8.1470873456809141e+00 1.9008816211806117e+01 1.6294389074533893e+01 0 0 0
252 1 1 8.1460002769906232e+00 1.6292935424709569e+01 1.9009040269199499e+01 0 0 0
253 1 1 9.5044003393317542e+00 1.7650046307737764e+01 2.0365797777686836e+01 0 0 0
254 1 1 6.7886093209461222e+00 1.7651332429572275e+01 1.7651654147455368e+01 0 0 0
255 1 1 6.7884036872460527e+00 2.0367250759467339e+01 2.0366992683899134e+01 0 0 0
256 1 1 9.5035000733697022e+00 2.0367191764098813e+01 1.7651500298894884e+01 0 0 0
257 1 1 1.0861761726954221e+01 2.1724888629705376e+01 2.1724754721464123e+01 0 -1 -1
258 1 1 1.0862160637535201e+01 2.7149204011121992e+00 2.7141684108119968e+00 0 0 0
259 1 1 1.3577316574963527e+01 2.7150392823551233e+00 -9.4226707337354931e-04 0 0 0
260 1 1 1.3577788426410867e+01 2.1724856772747053e+01 2.7146621007217866e+00 0 -1 0
261 1 1 1.4935478866602800e+01 1.3568590942708354e+00 4.0723731808337478e+00 0 0 0
262 1 1 1.2220144887841755e+01 1.3562410712439987e+00 1.3563360424131421e+00 0 0 0
263 1 1 1.2219549163048290e+01 4.0721015627605377e+00 4.0728587718187264e+00 0 0 0
264 1 1 1.4935359949936364e+01 4.0722204348787985e+00 1.3570387756723508e+00 0 0 0
265 1 1 1.0862647180506974e+01 -7.3143168972047610e-04 5.4301257966533649e+00 0 0 0
266 1 1 1.0861941897322158e+01 2.7144507310144594e+00 8.1456893399446226e+00 0 0 0
267 1 1 1.3577860173852480e+01 2.7145953103708522e+00 5.4302924095570155e+00 0 0 0
268 1 1 1.3578024302977450e+01 -8.2347953491762290e-04 8.1458197335052844e+00 0 0 0
269 1 1 1.4935415541347460e+01 1.3569262260301431e+00 9.5038820866106590e+00 0 0 0
270 1 1 1.2220160893243103e+01 1.3569076270582434e+00 6.7881745380639122e+00 0 0 0
271 1 1 1.2220014624426367e+01 4.0726143041119887e+00 9.5047801437696915e+00 0 0 0
272 1 1 1.4936234866611619e+01 4.0721386461024185e+00 6.7876835187369409e+00 0 0 0
273 1 1 1.0862605208281774e+01 -7.2514240758857489e-04 1.0862261327392428e+01 0 0 0
274 1 1 1.0862676028379351e+01 2.7145257061968091e+00 1.3578304639375213e+01 0 0 0
275 1 1 1.3578088745825610e+01 2.7147071445409989e+00 1.0862003391020870e+01 0 0 0
276 1 1 1.3578390058938982e+01 -8.8085149402567951e-04 1.3577626524588064e+01 0 0 0
277 1 1 1.4936394029040326e+01 1.3565410758178256e+00 1.4935435855798705e+01 0 0 0
278 1 1 1.2220210438091932e+01 1.3568418390518895e+00 1.2220288405680916e+01 0 0 0
279 1 1 1.2220102910736090e+01 4.0727649001946125e+00 1.4935841842545097e+01 0 0 0
280 1 1 1.4935439148999642e+01 4.0720710422956055e+00 1.2220590474879518e+01 0 0 0
281 1 1 1.0862675450172373e+01 -6.1669999367212794e-04 1.6293204393890100e+01 0 0 0
282 1 1 1.0862015030947529e+01 2.7146514182166892e+00 1.9009249961287605e+01 0 0 0
283 1 1 1.3577617759472778e+01 2.7152356508359579e+00 1.6294030347102840e+01 0 0 0
284 1 1 1.3577317378781995e+01 2.1724635434529073e+01 1.9008960027224589e+01 0 -1 0
285 1 1 1.4936025341798510e+01 1.3563962507369509e+00 2.0366718728172529e+01 0 0 0
286 1 1 1.2219955318533621e+01 1.3570677992103999e+00 1.7651465470733331e+01 0 0 0
287 1 1 1.2219762446393839e+01 4.0726040235591103e+00 2.0366891074327487e+01 0 0 0
288 1 1 1.4935684010070698e+01 4.0728992032601976e+00 1.7651473783307363e+01 0 0 0
289 1 1 1.0862173386918451e+01 5.4301695591622989e+00 -9.5563893087134970e-04 0 0 0
290 1 1 1.0861837453462822e+01 8.1459381804705284e+00 2.7148307285224749e+00 0 0 0
291 1 1 1.3578236383618874e+01 8.1469281173661336e+00 2.1724715920483114e+01 0 0 -1
292 1 1 1.3578341143859694e+01 5.4311142853038641e+00 2.7142915796786222e+00 0 0 0
293 1 1 1.4936301415659441e+01 6.7881907253173308e+00 4.0724190997670462e+00 0 0 0
294 1 1 1.2219463463633440e+01 6.7881852554901672e+00 1.3569991914803761e+00 0 0 0
295 1 1 1.2219401340848725e+01 9.5036737062860244e+00 4.0728014620074848e+00 0 0 0
296 1 1 1.4935785244388269e+01 9.5041593078293296e+00 1.3572290592139773e+00 0 0 0
297 1 1 1.0862021129126530e+01 5.4302592855890781e+00 5.4303970209005561e+00 0 0 0
298 1 1 1.0861556699651192e+01 8.1463485503699467e+00 8.1464976583001363e+00 0 0 0
299 1 1 1.3577519217010011e+01 8.1463240237514167e+00 5.4305326410320767e+00 0 0 0
300 1 1 1.3577326175631523e+01 5.4304573697661986e+00 8.1467161384851003e+00 0 0 0
301 1 1 1.4936159463599251e+01 6.7879911457900732e+00 9.5036296057523462e+00 0 0 0
302 1 1 1.2220371971077256e+01 6.7876277693880569e+00 6.7879205841778258e+00 0 0 0
303 1 1 1.2220173056865431e+01 9.5036581430873319e+00 9.5037388788497701e+00 0 0 0
304 1 1 1.4935720585743649e+01 9.5038082782742812e+00 6.7884144936553987e+00 0 0 0
305 1 1 1.0862017016547341e+01 5.4302926807546035e+00 1.0862277458128069e+01 0 0 0
306 1 1 1.0861954396609478e+01 8.1461367131719058e+00 1.3577654550465624e+01 0 0 0
307 1 1 1.3577402214000900e+01 8.1463897386665991e+00 1.0862438562603808e+01 0 0 0
308 1 1 1.3577918723646487e+01 5.4303807965286444e+00 1.3578017759213269e+01 0 0 0
309 1 1 1.4935740230743406e+01 6.7881832985767030e+00 1.4935723063754045e+01 0 0 0
310 1 1 1.2220187782664681e+01 6.7877839278032459e+00 1.2219849912258013e+01 0 0 0
311 1 1 1.2220291466396333e+01 9.5034141242955066e+00 1.4935290750956684e+01 0 0 0
312 1 1 1.4935227266688353e+01 9.5043557276282939e+00 1.2219783078966213e+01 0 0 0
313 1 1 1.0862248150053459e+01 5.4304442104216806e+00 1.6293524679410119e+01 0 0 0
314 1 1 1.0861778920326500e+01 8.1457508776593599e+00 1.9008386527417528e+01 0 0 0
315 1 1 1.3577914736299721e+01 8.1459384802437640e+00 1.6293448660143063e+01 0 0 0
316 1 1 1.3577677447610606e+01 5.4304228870258360e+00 1.9009255043345796e+01 0 0 0
317 1 1 1.4935203699537979e+01 6.7879333935207358e+00 2.0367489375352211e+01 0 0 0
318 1 1 1.2220131448090321e+01 6.7881306988656664e+00 1.7651210396264052e+01 0 0 0
319 1 1 1.2220388251692002e+01 9.5045628729953791e+00 2.0367015014113374e+01 0 0 0
320 1 1 1.4935507483521693e+01 9.5040699308841603e+00 1.7651047093544634e+01 0 0 0
321 1 1 1.0862361281643611e+01 1.0862328809624865e+01 2.1724379901135912e+01 0 0 -1
322 1 1 1.0861755854936668e+01 1.3577617122578541e+01 2.7146928247792084e+00 0 0 0
323 1 1 1.3577035734849629e+01 1.3577944341104214e+01 -6.5282466734247640e-04 0 0 0
324 1 1 1.3578538771155126e+01 1.0862900536744970e+01 2.7144309124210451e+00 0 0 0
325 1 1 1.4935438444250160e+01 1.2219767741537149e+01 4.0725922884448398e+00 0 0 0
326 1 1 1.2219467291716004e+01 1.2219737925648312e+01 1.3571601889136167e+00 0 0 0
327 1 1 1.2219745741302573e+01 1.4936057041811104e+01 4.0730642464715148e+00 0 0 0
328 1 1 1.4935639133386818e+01 1.4935357621487983e+01 1.3565577989182285e+00 0 0 0
329 1 1 1.0861697663834168e+01 1.0861455302257001e+01 5.4305230250718903e+00 0 0 0
330 1 1 1.0861619828014774e+01 1.3577951609091720e+01 8.1462277709009534e+00 0 0 0
331 1 1 1.3577299101637308e+01 1.3578171063448497e+01 5.4308460282964530e+00 0 0 0
332 1 1 1.3578084786615134e+01 1.0861454475106116e+01 8.1462714831902172e+00 0 0 0
333 1 1 1.4935539160253930e+01 1.2219691458065553e+01 9.5038247300821048e+00 0 0 0
334 1 1 1.2219383563404591e+01 1.2220365587626278e+01 6.7883442590437433e+00 0 0 0
335 1 1 1.2219724959479054e+01 1.4935535299649054e+01 9.5037980995514335e+00 0 0 0
336 1 1 1.4935417737432186e+01 1.4935676298143642e+01 6.7885296817116680e+00 0 0 0
337 1 1 1.0860966682096969e+01 1.0860867517159782e+01 1.0860757984996226e+01 0 0 0
338 1 1 1.0862155099552870e+01 1.3578221091550422e+01 1.3577590756317674e+01 0 0 0
339 1 1 1.3577160668936788e+01 1.3577124963512839e+01 1.0861244894867834e+01 0 0 0
340 1 1 1.3577590305463154e+01 1.0861867903569845e+01 1.3577805748384312e+01 0 0 0
341 1 1 1.4935726078955271e+01 1.2219341345143215e+01 1.4935305599145584e+01 0 0 0
342 1 1 1.2219987947926560e+01 1.2220073862324545e+01 1.2220348392850999e+01 0 0 0
343 1 1 1.2220001836091267e+01 1.4935828123594744e+01 1.4935383064511997e+01 0 0 0
344 1 1 1.4935784061219040e+01 1.4936036126886599e+01 1.2220124669674128e+01 0 0 0
345 1 1 1.0862320720042025e+01 1.0862241789387552e+01 1.6293315671271724e+01 0 0 0
346 1 1 1.0861419848015586e+01 1.3577322170396148e+01 1.9008742563346328e+01 0 0 0
347 1 1 1.3577249799613096e+01 1.3578406077963404e+01 1.6293948672239598e+01 0 0 0
348 1 1 1.3577804434881967e+01 1.0862054115055287e+01 1.9008736378958154e+01 0 0 0
349 1 1 1.4935724102194047e+01 1.2219640342412207e+01 2.0366460754750751e+01 0 0 0
350 1 1 1.2219848976877712e+01 1.2219953680894536e+01 1.7651281298392782e+01 0 0 0
351 1 1 1.2219862245507622e+01 1.4935252929401067e+01 2.0366600409694986e+01 0 0 0
352 1 1 1.4935827525128554e+01 1.4935613741522390e+01 1.7651350520341033e+01 0 0 0
353 1 1 1.0861627786172502e+01 1.6293593964194340e+01 -6.3408421232194739e-04 0 0 0
354 1 1 1.0861927528020857e+01 1.9009642650258858e+01 2.7147227794122819e+00 0 0 0
355 1 1 1.3578869938651474e+01 1.9008055716245750e+01 -3.6778358453619375e-04 0 0 0