diamond.out

64 atoms
128 bonds
384 angles
0 dihedrals
0 impropers

1 atom types
1 bond types
1 angle types
0 dihedral types
0 improper types

0 7.14 xlo xhi
0 7.14 ylo yhi
0 7.14 zlo zhi
0 0 0 xy xz yz

Atoms

1 1 1 0 0 0
2 1 1 0 1.785 1.785
3 1 1 1.785 1.785 0
4 1 1 1.785 0 1.785
5 1 1 2.6775 0.8925 2.6775
6 1 1 0.8925 0.8925 0.8925
7 1 1 0.8925 2.6775 2.6775
8 1 1 2.6775 2.6775 0.8925
9 1 1 0 0 3.57
10 1 1 0 1.785 5.355
11 1 1 1.785 1.785 3.57
12 1 1 1.785 0 5.355
13 1 1 2.6775 0.8925 6.2475
14 1 1 0.8925 0.8925 4.4625
15 1 1 0.8925 2.6775 6.2475
16 1 1 2.6775 2.6775 4.4625
17 1 1 0 3.57 0
18 1 1 0 5.355 1.785
19 1 1 1.785 5.355 0
20 1 1 1.785 3.57 1.785
21 1 1 2.6775 4.4625 2.6775
22 1 1 0.8925 4.4625 0.8925
23 1 1 0.8925 6.2475 2.6775
24 1 1 2.6775 6.2475 0.8925
25 1 1 0 3.57 3.57
26 1 1 0 5.355 5.355
27 1 1 1.785 5.355 3.57
28 1 1 1.785 3.57 5.355
29 1 1 2.6775 4.4625 6.2475
30 1 1 0.8925 4.4625 4.4625
31 1 1 0.8925 6.2475 6.2475
32 1 1 2.6775 6.2475 4.4625
33 1 1 3.57 0 0
34 1 1 3.57 1.785 1.785
35 1 1 5.355 1.785 0
36 1 1 5.355 0 1.785
37 1 1 6.2475 0.8925 2.6775
38 1 1 4.4625 0.8925 0.8925
39 1 1 4.4625 2.6775 2.6775
40 1 1 6.2475 2.6775 0.8925
41 1 1 3.57 0 3.57
42 1 1 3.57 1.785 5.355
43 1 1 5.355 1.785 3.57
44 1 1 5.355 0 5.355
45 1 1 6.2475 0.8925 6.2475
46 1 1 4.4625 0.8925 4.4625
47 1 1 4.4625 2.6775 6.2475
48 1 1 6.2475 2.6775 4.4625
49 1 1 3.57 3.57 0
50 1 1 3.57 5.355 1.785
51 1 1 5.355 5.355 0
52 1 1 5.355 3.57 1.785
53 1 1 6.2475 4.4625 2.6775
54 1 1 4.4625 4.4625 0.8925
55 1 1 4.4625 6.2475 2.6775
56 1 1 6.2475 6.2475 0.8925
57 1 1 3.57 3.57 3.57
58 1 1 3.57 5.355 5.355
59 1 1 5.355 5.355 3.57
60 1 1 5.355 3.57 5.355
61 1 1 6.2475 4.4625 6.2475
62 1 1 4.4625 4.4625 4.4625
63 1 1 4.4625 6.2475 6.2475
64 1 1 6.2475 6.2475 4.4625

Bonds

1 1 1 6
2 1 1 31
3 1 1 45
4 1 1 56
5 1 2 6
6 1 2 7
7 1 2 37
8 1 2 40
9 1 3 6
10 1 3 8
11 1 3 13
12 1 3 15
13 1 4 5
14 1 4 6
15 1 4 23
16 1 4 24
17 1 5 11
18 1 5 34
19 1 5 41
20 1 7 11
21 1 7 20
22 1 7 25
23 1 8 20
24 1 8 34
25 1 8 49
26 1 9 14
27 1 9 23
28 1 9 37
29 1 9 64
30 1 10 14
31 1 10 15
32 1 10 45
33 1 10 48
34 1 11 14
35 1 11 16
36 1 12 13
37 1 12 14
38 1 12 31
39 1 12 32
40 1 13 33
41 1 13 42
42 1 15 17
43 1 15 28
44 1 16 28
45 1 16 42
46 1 16 57
47 1 17 22
48 1 17 40
49 1 17 61
50 1 18 22
51 1 18 23
52 1 18 53
53 1 18 56
54 1 19 22
55 1 19 24
56 1 19 29
57 1 19 31
58 1 20 21
59 1 20 22
60 1 21 27
61 1 21 50
62 1 21 57
63 1 23 27
64 1 24 33
65 1 24 50
66 1 25 30
67 1 25 48
68 1 25 53
69 1 26 30
70 1 26 31
71 1 26 61
72 1 26 64
73 1 27 30
74 1 27 32
75 1 28 29
76 1 28 30
77 1 29 49
78 1 29 58
79 1 32 41
80 1 32 58
81 1 33 38
82 1 33 63
83 1 34 38
84 1 34 39
85 1 35 38
86 1 35 40
87 1 35 45
88 1 35 47
89 1 36 37
90 1 36 38
91 1 36 55
92 1 36 56
93 1 37 43
94 1 39 43
95 1 39 52
96 1 39 57
97 1 40 52
98 1 41 46
99 1 41 55
100 1 42 46
101 1 42 47
102 1 43 46
103 1 43 48
104 1 44 45
105 1 44 46
106 1 44 63
107 1 44 64
108 1 47 49
109 1 47 60
110 1 48 60
111 1 49 54
112 1 50 54
113 1 50 55
114 1 51 54
115 1 51 56
116 1 51 61
117 1 51 63
118 1 52 53
119 1 52 54
120 1 53 59
121 1 55 59
122 1 57 62
123 1 58 62
124 1 58 63
125 1 59 62
126 1 59 64
127 1 60 61
128 1 60 62

Angles

1 1 2 1 6
2 1 3 1 6
3 1 4 1 6
4 1 1 6 31
5 1 1 6 45
6 1 1 6 56
7 1 10 1 45
8 1 12 1 31
9 1 18 1 56
10 1 19 1 31
11 1 26 1 31
12 1 1 31 45
13 1 1 31 56
14 1 35 1 45
15 1 36 1 56
16 1 44 1 45
17 1 1 45 56
18 1 51 1 56
19 1 3 2 6
20 1 4 2 6
21 1 2 6 7
22 1 2 6 37
23 1 2 6 40
24 1 7 2 11
25 1 7 2 20
26 1 7 2 25
27 1 2 7 37
28 1 2 7 40
29 1 9 2 37
30 1 17 2 40
31 1 35 2 40
32 1 36 2 37
33 1 37 2 43
34 1 2 37 40
35 1 40 2 52
36 1 4 3 6
37 1 3 6 8
38 1 3 6 13
39 1 3 6 15
40 1 8 3 20
41 1 8 3 34
42 1 8 3 49
43 1 3 8 13
44 1 3 8 15
45 1 10 3 15
46 1 12 3 13
47 1 13 3 33
48 1 13 3 42
49 1 3 13 15
50 1 15 3 17
51 1 15 3 28
52 1 5 4 11
53 1 5 4 34
54 1 5 4 41
55 1 4 5 6
56 1 4 5 23
57 1 4 5 24
58 1 4 6 23
59 1 4 6 24
60 1 9 4 23
61 1 18 4 23
62 1 19 4 24
63 1 23 4 27
64 1 4 23 24
65 1 24 4 33
66 1 24 4 50
67 1 7 5 11
68 1 8 5 34
69 1 11 5 14
70 1 11 5 16
71 1 5 11 34
72 1 5 11 41
73 1 32 5 41
74 1 34 5 38
75 1 34 5 39
76 1 5 34 41
77 1 41 5 46
78 1 41 5 55
79 1 8 7 20
80 1 11 7 14
81 1 11 7 16
82 1 7 11 20
83 1 7 11 25
84 1 20 7 21
85 1 20 7 22
86 1 7 20 25
87 1 25 7 30
88 1 25 7 48
89 1 25 7 53
90 1 20 8 21
91 1 20 8 22
92 1 8 20 34
93 1 8 20 49
94 1 29 8 49
95 1 34 8 38
96 1 34 8 39
97 1 8 34 49
98 1 47 8 49
99 1 49 8 54
100 1 10 9 14
101 1 11 9 14
102 1 12 9 14
103 1 9 14 23
104 1 9 14 37
105 1 9 14 64
106 1 18 9 23
107 1 23 9 27
108 1 9 23 37
109 1 9 23 64
110 1 26 9 64
111 1 36 9 37
112 1 37 9 43
113 1 9 37 64
114 1 44 9 64
115 1 59 9 64
116 1 11 10 14
117 1 12 10 14
118 1 10 14 15
119 1 10 14 45
120 1 10 14 48
121 1 15 10 17
122 1 15 10 28
123 1 10 15 45
124 1 10 15 48
125 1 25 10 48
126 1 35 10 45
127 1 43 10 48
128 1 44 10 45
129 1 10 45 48
130 1 48 10 60
131 1 12 11 14
132 1 11 14 16
133 1 16 11 28
134 1 16 11 42
135 1 16 11 57
136 1 13 12 33
137 1 13 12 42
138 1 12 13 14
139 1 12 13 31
140 1 12 13 32
141 1 12 14 31
142 1 12 14 32
143 1 19 12 31
144 1 26 12 31
145 1 27 12 32
146 1 12 31 32
147 1 32 12 41
148 1 32 12 58
149 1 16 13 42
150 1 24 13 33
151 1 33 13 38
152 1 33 13 63
153 1 13 33 42
154 1 42 13 46
155 1 42 13 47
156 1 16 15 28
157 1 17 15 22
158 1 17 15 40
159 1 17 15 61
160 1 15 17 28
161 1 28 15 29
162 1 28 15 30
163 1 21 16 57
164 1 28 16 29
165 1 28 16 30
166 1 16 28 42
167 1 16 28 57
168 1 39 16 57
169 1 42 16 46
170 1 42 16 47
171 1 16 42 57
172 1 57 16 62
173 1 18 17 22
174 1 19 17 22
175 1 20 17 22
176 1 17 22 40
177 1 17 22 61
178 1 26 17 61
179 1 35 17 40
180 1 40 17 52
181 1 17 40 61
182 1 51 17 61
183 1 60 17 61
184 1 19 18 22
185 1 20 18 22
186 1 18 22 23
187 1 18 22 53
188 1 18 22 56
189 1 23 18 27
190 1 18 23 53
191 1 18 23 56
192 1 25 18 53
193 1 36 18 56
194 1 51 18 56
195 1 52 18 53
196 1 53 18 59
197 1 18 53 56
198 1 20 19 22
199 1 19 22 24
200 1 19 22 29
201 1 19 22 31
202 1 24 19 33
203 1 24 19 50
204 1 19 24 29
205 1 19 24 31
206 1 26 19 31
207 1 28 19 29
208 1 29 19 49
209 1 29 19 58
210 1 19 29 31
211 1 21 20 27
212 1 21 20 50
213 1 21 20 57
214 1 20 21 22
215 1 23 21 27
216 1 24 21 50
217 1 27 21 30
218 1 27 21 32
219 1 21 27 50
220 1 21 27 57
221 1 39 21 57
222 1 50 21 54
223 1 50 21 55
224 1 21 50 57
225 1 57 21 62
226 1 27 23 30
227 1 27 23 32
228 1 33 24 38
229 1 33 24 63
230 1 24 33 50
231 1 50 24 54
232 1 50 24 55
233 1 26 25 30
234 1 27 25 30
235 1 28 25 30
236 1 25 30 48
237 1 25 30 53
238 1 43 25 48
239 1 48 25 60
240 1 25 48 53
241 1 52 25 53
242 1 53 25 59
243 1 27 26 30
244 1 28 26 30
245 1 26 30 31
246 1 26 30 61
247 1 26 30 64
248 1 26 31 61
249 1 26 31 64
250 1 44 26 64
251 1 51 26 61
252 1 59 26 64
253 1 60 26 61
254 1 26 61 64
255 1 28 27 30
256 1 27 30 32
257 1 32 27 41
258 1 32 27 58
259 1 29 28 49
260 1 29 28 58
261 1 28 29 30
262 1 32 29 58
263 1 47 29 49
264 1 49 29 54
265 1 29 49 58
266 1 58 29 62
267 1 58 29 63
268 1 41 32 46
269 1 41 32 55
270 1 32 41 58
271 1 58 32 62
272 1 58 32 63
273 1 34 33 38
274 1 35 33 38
275 1 36 33 38
276 1 33 38 63
277 1 44 33 63
278 1 51 33 63
279 1 58 33 63
280 1 35 34 38
281 1 36 34 38
282 1 34 38 39
283 1 39 34 43
284 1 39 34 52
285 1 39 34 57
286 1 36 35 38
287 1 35 38 40
288 1 35 38 45
289 1 35 38 47
290 1 40 35 52
291 1 35 40 45
292 1 35 40 47
293 1 42 35 47
294 1 44 35 45
295 1 35 45 47
296 1 47 35 49
297 1 47 35 60
298 1 37 36 43
299 1 36 37 38
300 1 36 37 55
301 1 36 37 56
302 1 36 38 55
303 1 36 38 56
304 1 41 36 55
305 1 50 36 55
306 1 51 36 56
307 1 55 36 59
308 1 36 55 56
309 1 39 37 43
310 1 43 37 46
311 1 43 37 48
312 1 40 39 52
313 1 43 39 46
314 1 43 39 48
315 1 39 43 52
316 1 39 43 57
317 1 52 39 53
318 1 52 39 54
319 1 39 52 57
320 1 57 39 62
321 1 52 40 53
322 1 52 40 54
323 1 42 41 46
324 1 43 41 46
325 1 44 41 46
326 1 41 46 55
327 1 50 41 55
328 1 55 41 59
329 1 43 42 46
330 1 44 42 46
331 1 42 46 47
332 1 47 42 49
333 1 47 42 60
334 1 44 43 46
335 1 43 46 48
336 1 48 43 60
337 1 44 45 46
338 1 44 45 63
339 1 44 45 64
340 1 44 46 63
341 1 44 46 64
342 1 51 44 63
343 1 58 44 63
344 1 59 44 64
345 1 44 63 64
346 1 48 47 60
347 1 49 47 54
348 1 47 49 60
349 1 60 47 61
350 1 60 47 62
351 1 60 48 61
352 1 60 48 62
353 1 50 49 54
354 1 51 49 54
355 1 52 49 54
356 1 51 50 54
357 1 52 50 54
358 1 50 54 55
359 1 55 50 59
360 1 52 51 54
361 1 51 54 56
362 1 51 54 61
363 1 51 54 63
364 1 51 56 61
365 1 51 56 63
366 1 58 51 63
367 1 60 51 61
368 1 51 61 63
369 1 53 52 59
370 1 52 53 54
371 1 55 53 59
372 1 59 53 62
373 1 59 53 64
374 1 59 55 62
375 1 59 55 64
376 1 58 57 62
377 1 59 57 62
378 1 60 57 62
379 1 59 58 62
380 1 60 58 62
381 1 58 62 63
382 1 60 59 62
383 1 59 62 64
384 1 60 61 62
