diamond.out

8 atoms
15 bonds
42 angles
0 dihedrals
0 impropers

1 atom types
1 bond types
1 angle types
0 dihedral types
0 improper types

0 3.57 xlo xhi
0 3.57 ylo yhi
0 3.57 zlo zhi
0 0 0 xy xz yz

Atoms

1 1 1 0 0 0
2 1 1 0 1.785 1.785
3 1 1 1.785 1.785 0
4 1 1 1.785 0 1.785
5 1 1 2.6775 0.8925 2.6775
6 1 1 0.8925 0.8925 0.8925
7 1 1 0.8925 2.6775 2.6775
8 1 1 2.6775 2.6775 0.8925

Bonds

1 1 1 5
2 1 1 6
3 1 1 7
4 1 1 8
5 1 2 5
6 1 2 7
7 1 2 8
8 1 3 5
9 1 3 6
10 1 3 7
11 1 3 8
12 1 4 5
13 1 4 6
14 1 4 7
15 1 4 8

Angles

1 1 5 1 6
2 1 5 1 7
3 1 5 1 8
4 1 1 5 2
5 1 1 5 3
6 1 1 5 4
7 1 6 1 7
8 1 6 1 8
9 1 1 6 3
10 1 1 6 4
11 1 7 1 8
12 1 1 7 2
13 1 1 7 3
14 1 1 7 4
15 1 1 8 2
16 1 1 8 3
17 1 1 8 4
18 1 5 2 7
19 1 5 2 8
20 1 2 5 3
21 1 2 5 4
22 1 7 2 8
23 1 2 7 3
24 1 2 7 4
25 1 2 8 3
26 1 2 8 4
27 1 5 3 6
28 1 5 3 7
29 1 5 3 8
30 1 3 5 4
31 1 6 3 7
32 1 6 3 8
33 1 3 6 4
34 1 7 3 8
35 1 3 7 4
36 1 3 8 4
37 1 5 4 6
38 1 5 4 7
39 1 5 4 8
40 1 6 4 7
41 1 6 4 8
42 1 7 4 8
