diamond.out

8 atoms
16 bonds
0 angles
0 dihedrals
0 impropers

1 atom types
1 bond types
0 angle types
0 dihedral types
0 improper types

0 3.57 xlo xhi
0 3.57 ylo yhi
0 3.57 zlo zhi
0 0 0 xy xz yz

Atoms

1 1 1 0 0 0
2 1 1 0 1.785 1.785
3 1 1 1.785 1.785 0
4 1 1 1.785 0 1.785
5 1 1 2.6775 0.8925 2.6775
6 1 1 0.8925 0.8925 0.8925
7 1 1 0.8925 2.6775 2.6775
8 1 1 2.6775 2.6775 0.8925

Bonds

1 1 0 4
2 1 0 5
3 1 0 6
4 1 0 7
5 1 1 4
6 1 1 5
7 1 1 6
8 1 1 7
9 1 2 4
10 1 2 5
11 1 2 6
12 1 2 7
13 1 3 4
14 1 3 5
15 1 3 6
16 1 3 7

Angles

1 1 4 0 5
2 1 4 0 6
3 1 4 0 7
4 1 0 4 1
5 1 0 4 2
6 1 0 4 3
7 1 5 0 6
8 1 5 0 7
9 1 0 5 1
10 1 0 5 2
11 1 0 5 3
12 1 6 0 7
13 1 0 6 1
14 1 0 6 2
15 1 0 6 3
16 1 0 7 1
17 1 0 7 2
18 1 0 7 3
19 1 4 1 5
20 1 4 1 6
21 1 4 1 7
22 1 1 4 2
23 1 1 4 3
24 1 5 1 6
25 1 5 1 7
26 1 1 5 2
27 1 1 5 3
28 1 6 1 7
29 1 1 6 2
30 1 1 6 3
31 1 1 7 2
32 1 1 7 3
33 1 4 2 5
34 1 4 2 6
35 1 4 2 7
36 1 2 4 3
37 1 5 2 6
38 1 5 2 7
39 1 2 5 3
40 1 6 2 7
41 1 2 6 3
42 1 2 7 3
43 1 4 3 5
44 1 4 3 6
45 1 4 3 7
46 1 5 3 6
47 1 5 3 7
48 1 6 3 7
