silicon.out

8 atoms
16 bonds
48 angles
0 dihedrals
0 impropers

1 atom types
1 bond types
1 angle types
0 dihedral types
0 improper types

0 5.431 xlo xhi
0 5.431 ylo yhi
0 5.431 zlo zhi
0 0 0 xy xz yz

Atoms

1 1 1 0 0 0
2 1 1 0 2.7155 2.7155
3 1 1 2.7155 2.7155 0
4 1 1 2.7155 0 2.7155
5 1 1 4.07325 1.35775 4.07325
6 1 1 1.35775 1.35775 1.35775
7 1 1 1.35775 4.07325 4.07325
8 1 1 4.07325 4.07325 1.35775

Bonds

1 1 1 5
2 1 1 6
3 1 1 7
4 1 1 8
5 1 2 5
6 1 2 6
7 1 2 7
8 1 2 8
9 1 3 5
10 1 3 6
11 1 3 7
12 1 3 8
13 1 4 5
14 1 4 6
15 1 4 7
16 1 4 8

Angles

1 1 5 1 6
2 1 5 1 7
3 1 5 1 8
4 1 1 5 2
5 1 1 5 3
6 1 1 5 4
7 1 6 1 7
8 1 6 1 8
9 1 1 6 2
10 1 1 6 3
11 1 1 6 4
12 1 7 1 8
13 1 1 7 2
14 1 1 7 3
15 1 1 7 4
16 1 1 8 2
17 1 1 8 3
18 1 1 8 4
19 1 5 2 6
20 1 5 2 7
21 1 5 2 8
22 1 2 5 3
23 1 2 5 4
24 1 6 2 7
25 1 6 2 8
26 1 2 6 3
27 1 2 6 4
28 1 7 2 8
29 1 2 7 3
30 1 2 7 4
31 1 2 8 3
32 1 2 8 4
33 1 5 3 6
34 1 5 3 7
35 1 5 3 8
36 1 3 5 4
37 1 6 3 7
38 1 6 3 8
39 1 3 6 4
40 1 7 3 8
41 1 3 7 4
42 1 3 8 4
43 1 5 4 6
44 1 5 4 7
45 1 5 4 8
46 1 6 4 7
47 1 6 4 8
48 1 7 4 8
