silicon.out

8 atoms
16 bonds
48 angles
0 dihedrals
0 impropers

1 atom types
1 bond types
1 angle types
0 dihedral types
0 improper types

0 5.431 xlo xhi
0 5.431 ylo yhi
0 5.431 zlo zhi
0 0 0 xy xz yz

Atoms

1 1 1 0 0 0
2 1 1 0 2.7155 2.7155
3 1 1 2.7155 2.7155 0
4 1 1 2.7155 0 2.7155
5 1 1 4.07325 1.35775 4.07325
6 1 1 1.35775 1.35775 1.35775
7 1 1 1.35775 4.07325 4.07325
8 1 1 4.07325 4.07325 1.35775

Bonds

1 1 1 5
2 1 1 6
3 1 1 7
4 1 1 8
5 1 2 5
6 1 2 6
7 1 2 7
8 1 2 8
9 1 3 5
10 1 3 6
11 1 3 7
12 1 3 8
13 1 4 5
14 1 4 6
15 1 4 7
16 1 4 8

Angles

1 1 2 1 5
2 1 2 1 6
3 1 2 1 7
4 1 2 1 8
5 1 3 1 5
6 1 3 1 6
7 1 3 1 7
8 1 3 1 8
9 1 4 1 5
10 1 4 1 6
11 1 4 1 7
12 1 4 1 8
13 1 1 5 6
14 1 1 5 7
15 1 1 5 8
16 1 1 6 7
17 1 1 6 8
18 1 1 7 8
19 1 3 2 5
20 1 3 2 6
21 1 3 2 7
22 1 3 2 8
23 1 4 2 5
24 1 4 2 6
25 1 4 2 7
26 1 4 2 8
27 1 2 5 6
28 1 2 5 7
29 1 2 5 8
30 1 2 6 7
31 1 2 6 8
32 1 2 7 8
33 1 4 3 5
34 1 4 3 6
35 1 4 3 7
36 1 4 3 8
37 1 3 5 6
38 1 3 5 7
39 1 3 5 8
40 1 3 6 7
41 1 3 6 8
42 1 3 7 8
43 1 4 5 6
44 1 4 5 7
45 1 4 5 8
46 1 4 6 7
47 1 4 6 8
48 1 4 7 8
